file 5973254 1607528622                                         
version 2
run General-0-20201209-16:40:08-11998
attr configname General
attr datetime 20201209-16:40:08
attr experiment General
attr inifile omnetpp.ini
attr iterationvars ""
attr iterationvars2 $repetition=0
attr measurement ""
attr network Master1Paths4
attr processid 11998
attr repetition 0
attr replication #0
attr resultdir results
attr runnumber 0
attr seedset 0

vector 31  Master1Paths4.FTASlave_1.PTP_Stack[0]  offsetFromMaster:vector  ETV
vector 32  Master1Paths4.FTASlave_1.PTP_Stack[1]  offsetFromMaster:vector  ETV
vector 33  Master1Paths4.FTASlave_1.PTP_Stack[2]  offsetFromMaster:vector  ETV
vector 34  Master1Paths4.FTASlave_1.PTP_Stack[3]  offsetFromMaster:vector  ETV
vector 48  Master1Paths4.AVGSlave_1.PTP_Stack[0]  offsetFromMaster:vector  ETV
vector 49  Master1Paths4.AVGSlave_1.PTP_Stack[1]  offsetFromMaster:vector  ETV
vector 50  Master1Paths4.AVGSlave_1.PTP_Stack[2]  offsetFromMaster:vector  ETV
vector 51  Master1Paths4.AVGSlave_1.PTP_Stack[3]  offsetFromMaster:vector  ETV
vector 64  Master1Paths4.StdSlave_1.PTP_Stack  offsetFromMaster:vector  ETV
vector 1  Master1Paths4.timeDiff_FTA  ScaledTimeDiff:vector  ETV
vector 3  Master1Paths4.timeDiff_AVG  ScaledTimeDiff:vector  ETV
vector 5  Master1Paths4.timeDiff_Std  ScaledTimeDiff:vector  ETV
vector 30  Master1Paths4.FTASlave_1.ClockServo  OffsetFromMaster:vector  ETV
vector 47  Master1Paths4.AVGSlave_1.ClockServo  OffsetFromMaster:vector  ETV
vector 65  Master1Paths4.StdSlave_1.ClockServo  OffsetFromMaster:vector  ETV
1	1505 530128 76 17798912 0.01 180 18000 -0.005 0.006771525422 -0.562789745396 0.00214037145608
3	531633 529989 77 17798468 0.01 179.99 17999 -0.007451189308 0.006085193644 -0.103823125277 0.0021760151987023
5	1061622 550644 78 17798469 0.01 179.99 17999 -0.002399885857 0.000228104434 1.254832442454 0.00048470386367543
30	1612266 1054744 8622 16571405 0.340017116576 149.992268547041 26793 -0.006767101421 0.005000057333 0.0041192430580002 0.00077900092981285
31	2667010 137268 0 8690499 0 60.286964940799 3821 -0.006763618 0.005000699 -0.055776678 0.00037571793876917
32	2804278 207425 0 12023299 0 90.215459582659 5741 -0.007048403 0.004999824 0.0079207660000001 0.0003811158500303
33	3011703 280202 0 14654427 0 120.2028163 7662 -0.006770876 0.005000699 -0.005887731 0.00045072590514751
34	3291905 354289 0 16582096 0 150.221950949308 9581 -0.00374145 0.005000674 0.043009935 0.00030081202232951
47	3646194 1061361 8651 16571399 0.340025308802 149.992266616097 26787 -0.005434930907 0.005574469605 0.003738980258 0.00056749029106906
48	4707555 136280 0 8691423 0 60.29436555133 3820 -0.001903053 0.006563266 0.034624445 0.00018687755782271
49	4843835 207220 0 12025090 0 90.240357839537 5739 -0.005523402 0.007240164 -0.016492161 0.00027048656625293
50	5051055 280537 0 14654633 0 120.206135052236 7662 -0.004474063 0.004375586 0.008673066 0.0001924200458989
51	5331592 353570 0 16584064 0 150.2704873 9578 -0.005193381 0.001175348 -0.038115924 0.00021610690565056
64	5685162 138296 0 8692600 0 60.3076252 3820 -4.769e-06 0.002400509 0.007201541 1.7285228452075e-05
65	5823458 149796 12448 8656198 0.371923790771 59.996924032835 3817 -4.769504e-06 0.002400509857 0.007201550318 1.7285241090155e-05
