file 6380145 1607691529                                         
version 2
run General-0-20201211-13:54:39-75925
attr configname General
attr datetime 20201211-13:54:39
attr experiment General
attr inifile omnetpp.ini
attr iterationvars ""
attr iterationvars2 $repetition=0
attr measurement ""
attr network Master1Paths4
attr processid 75925
attr repetition 0
attr replication #0
attr resultdir results
attr runnumber 0
attr seedset 0

vector 33  Master1Paths4.StdSlave_1.PTP_Stack  offsetFromMaster:vector  ETV
vector 39  Master1Paths4.AVGSlave_1.PTP_Stack[0]  offsetFromMaster:vector  ETV
vector 40  Master1Paths4.AVGSlave_1.PTP_Stack[1]  offsetFromMaster:vector  ETV
vector 41  Master1Paths4.AVGSlave_1.PTP_Stack[2]  offsetFromMaster:vector  ETV
vector 42  Master1Paths4.AVGSlave_1.PTP_Stack[3]  offsetFromMaster:vector  ETV
vector 56  Master1Paths4.FTASlave_1.PTP_Stack[0]  offsetFromMaster:vector  ETV
vector 57  Master1Paths4.FTASlave_1.PTP_Stack[1]  offsetFromMaster:vector  ETV
vector 58  Master1Paths4.FTASlave_1.PTP_Stack[2]  offsetFromMaster:vector  ETV
vector 59  Master1Paths4.FTASlave_1.PTP_Stack[3]  offsetFromMaster:vector  ETV
vector 1  Master1Paths4.timeDiff_Std  ScaledTimeDiff:vector  ETV
vector 3  Master1Paths4.timeDiff_AVG  ScaledTimeDiff:vector  ETV
vector 5  Master1Paths4.timeDiff_FTA  ScaledTimeDiff:vector  ETV
vector 38  Master1Paths4.AVGSlave_1.ClockServo  OffsetFromMaster:vector  ETV
vector 55  Master1Paths4.FTASlave_1.ClockServo  OffsetFromMaster:vector  ETV
vector 34  Master1Paths4.StdSlave_1.ClockServo  OffsetFromMaster:vector  ETV
1	1505 530825 79 24396015 0.01 180 18000 -0.004458865008 3.341845e-06 -1.239922375092 0.001392942008341
3	532330 556787 80 24394873 0.01 179.99 17999 -0.005 0.004232984171 0.733804366611 0.0021778043590883
5	1089117 528025 81 24394874 0.01 179.99 17999 -1.404983191362 1.379682314394 -134.63453159019 239.9683342352
33	1617142 355805 0 21170719 0 150.2868316 9581 -5.25e-06 0.00445985 0.013383085 5.9666469189819e-05
34	1972947 384843 40508 21139758 0.356304461049 149.996941186233 9578 -5.250813e-06 0.004459850341 0.013382994307 5.9666483694142e-05
38	2357790 1087568 32610 21139745 0.310246255802 149.996938591649 26793 -0.001668804575 0.003202980083 0.141883626198 0.00047030660160742
39	3445358 347315 0 21170472 0 150.285449919005 9581 -0.002045273 0.005000024 0.053980902 0.00023110566569517
40	3792673 200530 0 13560785 0 90.223231052269 5740 -0.003209623 0.004999612 0.048934149 0.00021203439787846
41	3993203 273726 0 17529273 0 120.233213718127 7660 -0.001488198 0.002281073 0.035795123 0.00018090799135842
42	4266929 126246 0 9265550 0 60.241698 3824 -0.003465594 0.002812376 0.003087995 0.00022575718635515
55	4393175 1031265 35412 21139739 0.325863485091 149.996938426398 26359 -1.202121984174 1.404982969695 10.308076587174 118.91355949952
56	5424440 350852 0 21168941 0 150.270615075 9532 -1.379680863 1.404983803 19.490609556 71.123373027806
57	5775292 200338 0 13563703 0 90.245096974944 5612 -1.379681275 1.404984331 18.550295922 48.73651705572
58	5975630 274664 0 17529895 0 120.240707225 7582 -1.254391471 1.273555254 17.188383366 49.179287701038
59	6250294 129851 0 9266839 0 60.248609161833 3704 -1.254387803 1.279881778 12.456326802 36.435267470784
