file 5797445 1607695170                                         
version 2
run General-0-20201211-14:58:43-78646
attr configname General
attr datetime 20201211-14:58:43
attr experiment General
attr inifile omnetpp.ini
attr iterationvars ""
attr iterationvars2 $repetition=0
attr measurement ""
attr network Master1Paths4
attr processid 78646
attr repetition 0
attr replication #0
attr resultdir results
attr runnumber 0
attr seedset 0

vector 33  Master1Paths4.StdSlave_1.PTP_Stack  offsetFromMaster:vector  ETV
vector 39  Master1Paths4.AVGSlave_1.PTP_Stack[0]  offsetFromMaster:vector  ETV
vector 40  Master1Paths4.AVGSlave_1.PTP_Stack[1]  offsetFromMaster:vector  ETV
vector 41  Master1Paths4.AVGSlave_1.PTP_Stack[2]  offsetFromMaster:vector  ETV
vector 42  Master1Paths4.AVGSlave_1.PTP_Stack[3]  offsetFromMaster:vector  ETV
vector 56  Master1Paths4.FTASlave_1.PTP_Stack[0]  offsetFromMaster:vector  ETV
vector 57  Master1Paths4.FTASlave_1.PTP_Stack[1]  offsetFromMaster:vector  ETV
vector 58  Master1Paths4.FTASlave_1.PTP_Stack[2]  offsetFromMaster:vector  ETV
vector 59  Master1Paths4.FTASlave_1.PTP_Stack[3]  offsetFromMaster:vector  ETV
vector 1  Master1Paths4.timeDiff_Std  ScaledTimeDiff:vector  ETV
vector 3  Master1Paths4.timeDiff_AVG  ScaledTimeDiff:vector  ETV
vector 5  Master1Paths4.timeDiff_FTA  ScaledTimeDiff:vector  ETV
vector 38  Master1Paths4.AVGSlave_1.ClockServo  OffsetFromMaster:vector  ETV
vector 55  Master1Paths4.FTASlave_1.ClockServo  OffsetFromMaster:vector  ETV
vector 34  Master1Paths4.StdSlave_1.ClockServo  OffsetFromMaster:vector  ETV
1	1505 526363 79 6401976 0.01 180 18000 -6.513124e-05 0.002460502633 -0.278135743908 0.00028936750275181
3	527868 513080 80 6401756 0.01 179.99 17999 -5.0001252e-05 0.001380786039 0.579725779021 0.00019496355203417
5	1040948 524793 81 6401757 0.01 179.99 17999 -1.273025086677 1.175103524055 -91.972337253775 134.05554132648
33	1565741 136678 0 2647115 0 60.2152816 3821 -0.003206079 4.031e-06 -0.008630973 2.5073546392407e-05
34	1702419 148131 8452 2637431 0.340307034074 59.985257984353 3818 -0.003206079622 4.031707e-06 -0.008631018713 2.5073557702e-05
38	1850550 1044006 6242 5658964 0.31376956819 149.986154728467 26793 -0.000609104646 4.997234e-05 -0.003994376682 1.6566829099134e-06
39	2894556 136454 0 2647588 0 60.232081221557 3820 -1.0064e-05 5.1422e-05 0.000211225 1.5625683411e-08
40	3031010 204784 0 3784492 0 90.240573325 5743 -0.001754174 4.9755e-05 -0.001146361 3.094940174383e-06
41	3235794 275863 0 4791257 0 120.268850506607 7661 -0.000558264 5.0009e-05 -0.001595668 7.7080531406e-07
42	3511657 348124 0 5665028 0 150.208205525 9581 -0.000123996 4.9038e-05 -0.001544541 5.8138746297001e-08
55	3859781 1006461 7144 5658970 0.324680692638 149.986158726916 26256 -1.175102140349 0.816041071958 10.61740915763 69.455344631728
56	4866242 126134 0 2648149 0 60.248637943619 3647 -1.17510284 0.705061708 6.85244093 25.548906656024
57	4992376 197061 0 3784259 0 90.232877225 5646 -1.17510144 0.705063043 3.66376373 23.981642270322
58	5189437 267971 0 4789849 0 120.218341175 7561 -0.871996305 1.273025011 33.230710305 34.163678745521
59	5457408 340037 0 5665079 0 150.210294775 9514 -1.175102942 1.273025503 23.186983085 36.239779681953
