file 4472352 1607623815                                         
version 2
run General-0-20201210-19:05:15-50370
attr configname General
attr datetime 20201210-19:05:15
attr experiment General
attr inifile omnetpp.ini
attr iterationvars ""
attr iterationvars2 $repetition=0
attr measurement ""
attr network Master1Paths4
attr processid 50370
attr repetition 0
attr replication #0
attr resultdir results
attr runnumber 0
attr seedset 0

vector 30  Master1Paths4.StdSlave_1.PTP_Stack  offsetFromMaster:vector  ETV
vector 31  Master1Paths4.StdSlave_1.ClockServo  OffsetFromMaster:vector  ETV
vector 36  Master1Paths4.AVGSlave_1.PTP_Stack[0]  offsetFromMaster:vector  ETV
vector 35  Master1Paths4.AVGSlave_1.ClockServo  OffsetFromMaster:vector  ETV
vector 53  Master1Paths4.FTASlave_1.PTP_Stack[0]  offsetFromMaster:vector  ETV
vector 52  Master1Paths4.FTASlave_1.ClockServo  OffsetFromMaster:vector  ETV
vector 39  Master1Paths4.AVGSlave_1.PTP_Stack[3]  offsetFromMaster:vector  ETV
vector 56  Master1Paths4.FTASlave_1.PTP_Stack[3]  offsetFromMaster:vector  ETV
vector 38  Master1Paths4.AVGSlave_1.PTP_Stack[2]  offsetFromMaster:vector  ETV
vector 55  Master1Paths4.FTASlave_1.PTP_Stack[2]  offsetFromMaster:vector  ETV
vector 1  Master1Paths4.timeDiff_Std  ScaledTimeDiff:vector  ETV
vector 3  Master1Paths4.timeDiff_AVG  ScaledTimeDiff:vector  ETV
vector 5  Master1Paths4.timeDiff_FTA  ScaledTimeDiff:vector  ETV
vector 37  Master1Paths4.AVGSlave_1.PTP_Stack[1]  offsetFromMaster:vector  ETV
vector 54  Master1Paths4.FTASlave_1.PTP_Stack[1]  offsetFromMaster:vector  ETV
1	1505 485033 4264352 17745448 30.01 180 15000 -0.001831234836 2.959764e-06 -10.987202209386 0.01341473849824
3	486538 458584 4264353 17745046 30.01 179.99 14999 -0.000581419876 0.000569947779 -0.31485654316 0.00035396186780427
5	945122 447194 4264354 17745047 30.01 179.99 14999 -2.059052e-06 0.000212870917 0.318022537273 4.5324923255901e-05
30	1392316 70331 4262872 8635829 30.00089154805 60.22429855 1921 -5.192e-06 5.885e-06 2.8199999999999e-07 3.167762602e-09
31	1462647 76092 4262872 8607517 30.00089154805 59.985273997169 1920 -5.192443e-06 5.885499e-06 2.5351299999999e-07 3.169658731454e-09
35	1538739 772079 4262883 16517945 30.000892239873 149.986152246483 19200 -0.000333522468 0.000323074103 -0.00022430619000002 0.00019153122698368
36	2310818 63440 4262883 8635100 30.000892239873 60.215748509439 1921 -0.000502131 0.000527414 0.005324369 8.6573083719653e-05
37	2374258 134473 4264531 11969219 30.011903425008 90.216129400978 3841 -0.000499606 0.000528384 -0.003382563 8.7604592671837e-05
38	2508731 207214 4263967 14602444 30.00789035498 120.226112653145 5761 -0.000524945 0.000515846 0.002676491 8.7125907434575e-05
39	2715945 280739 4263349 16529295 30.001782090086 150.234602568413 7681 -0.00047654 0.000536005 -0.00448085 8.5757558864726e-05
52	2996684 765114 4262912 16517939 30.000896464849 149.986150559479 19200 -3.982283e-06 3.945612e-06 0.003548640564 8.867684917866e-09
53	3761798 70054 4262912 8634040 30.000896464849 60.208113577369 1921 -4.543e-06 3.488e-06 7.3494e-05 2.12011968e-09
54	3831852 140284 4264538 11971725 30.01191055027 90.245129978541 3841 -3.446e-06 5.465e-06 0.000241538 2.458966152e-09
55	3972136 213435 4263973 14603442 30.007890802484 120.240738925 5761 -4.885e-06 4.395e-06 0.001562061 5.437163175e-09
56	4185571 286781 4263357 16529888 30.001782716572 150.248678719143 7681 -4.263e-06 3.945e-06 0.001720866 6.657976958e-09
