file 5828202 1607624754                                         
version 2
run General-0-20201210-19:22:22-50777
attr configname General
attr datetime 20201210-19:22:22
attr experiment General
attr inifile omnetpp.ini
attr iterationvars ""
attr iterationvars2 $repetition=0
attr measurement ""
attr network Master1Paths4
attr processid 50777
attr repetition 0
attr replication #0
attr resultdir results
attr runnumber 0
attr seedset 0

vector 30  Master1Paths4.StdSlave_1.PTP_Stack  offsetFromMaster:vector  ETV
vector 36  Master1Paths4.AVGSlave_1.PTP_Stack[0]  offsetFromMaster:vector  ETV
vector 37  Master1Paths4.AVGSlave_1.PTP_Stack[1]  offsetFromMaster:vector  ETV
vector 38  Master1Paths4.AVGSlave_1.PTP_Stack[2]  offsetFromMaster:vector  ETV
vector 39  Master1Paths4.AVGSlave_1.PTP_Stack[3]  offsetFromMaster:vector  ETV
vector 53  Master1Paths4.FTASlave_1.PTP_Stack[0]  offsetFromMaster:vector  ETV
vector 54  Master1Paths4.FTASlave_1.PTP_Stack[1]  offsetFromMaster:vector  ETV
vector 55  Master1Paths4.FTASlave_1.PTP_Stack[2]  offsetFromMaster:vector  ETV
vector 56  Master1Paths4.FTASlave_1.PTP_Stack[3]  offsetFromMaster:vector  ETV
vector 1  Master1Paths4.timeDiff_Std  ScaledTimeDiff:vector  ETV
vector 3  Master1Paths4.timeDiff_AVG  ScaledTimeDiff:vector  ETV
vector 5  Master1Paths4.timeDiff_FTA  ScaledTimeDiff:vector  ETV
vector 52  Master1Paths4.FTASlave_1.ClockServo  OffsetFromMaster:vector  ETV
vector 35  Master1Paths4.AVGSlave_1.ClockServo  OffsetFromMaster:vector  ETV
vector 31  Master1Paths4.StdSlave_1.ClockServo  OffsetFromMaster:vector  ETV
1	1505 555972 76 17655899 0.01 180 18000 -0.004458865008 0.002260145502 13.361144032325 0.021355068584053
3	557477 548079 77 17655481 0.01 179.99 17999 -0.005 0.006144079276 -0.236802368514 0.0020950893894379
5	1105556 548448 78 17655482 0.01 179.99 17999 -1.130866756971 1.102475271896 -258.53384144597 426.58438518621
30	1654004 138434 0 8523043 0 60.22430575 3820 -4.708e-06 0.004459489 0.013378591 5.9666899687489e-05
31	1792438 149868 10270 8497558 0.360263009789 59.985262579872 3817 -4.708974e-06 0.004459489008 0.013378618149 5.9666906581466e-05
35	1942306 1074630 9762 16422369 0.355650566535 149.986151025345 26788 -0.002888221764 0.003749470083 0.010230274681 0.00062802097793736
36	3016936 125072 0 8522864 0 60.222030914306 3820 -0.005774758 0.004997824 -0.023156776 0.00034582025485886
37	3142008 195599 0 11863731 0 90.222398514059 5741 -0.005778128 0.005000674 0.001219471 0.00034506094105245
38	3337607 270623 0 14502521 0 120.232381448979 7660 -0.002737417 0.004999399 0.024499801 0.00025869790343326
39	3608230 344124 0 16433997 0 150.24087305 9579 -0.002744124 0.004059387 0.007591159 0.00024421460812063
52	3952354 973371 8896 16422375 0.344639832492 149.98615613887 25484 -1.082376382107 1.017671601904 1.974783606336 231.91382945177
53	4925725 122877 0 8497552 0 59.985262283445 3692 -1.102474572 1.038508954 77.863773806 111.73236182319
54	5048602 183237 0 11865663 0 90.245145967527 5333 -1.081679549 1.13086743 -4.120361547 87.35080886184
55	5231839 262020 0 14503069 0 120.240755525 7395 -1.096929626 1.081920429 48.079728037 102.97747267434
56	5493859 334343 0 16434378 0 150.248697715263 9274 -1.135453816 1.017671101 18.832513737 83.646224610271
